
Linearized model: Predictions were generated on 08-Jun-2022 at 14:52:50 using OpenFAST, compiled as a 64-bit application using single precision at commit v3.1.0-177-gb77bc789-dirty
 linked with  NWTC Subroutine Library; ElastoDyn; BeamDyn

Description from the FAST input file: Generated with AeroElasticSE FAST driver

Simulation information:
   Simulation time:                     0.9000 s
   Rotor Speed:                         0.8253 rad/s
   Azimuth:                             0.7427 rad
   Wind Speed:                          0.0000 m/s
   Number of continuous states:        44
   Number of discrete states:           0
   Number of constraint states:         0
   Number of inputs:                    0
   Number of outputs:                   0
   Jacobians included in this file?    No

Order of continuous states:
   Row/Column Operating Point                                       Rotating Frame? Derivative Order Description
   ---------- ---------------                                       --------------- ---------------- -----------
          1    2.576648891E-01                                             F               2         ED 1st tower fore-aft bending mode DOF (internal DOF index = DOF_TFA1), m
          2    5.057078600E-02                                             F               2         ED 1st tower side-to-side bending mode DOF (internal DOF index = DOF_TSS1), m
          3    8.272242121E-05                                             F               2         ED 2nd tower fore-aft bending mode DOF (internal DOF index = DOF_TFA2), m
          4    2.567703814E-05                                             F               2         ED 2nd tower side-to-side bending mode DOF (internal DOF index = DOF_TSS2), m
          5   -5.346023440E-01                                             F               2         ED First time derivative of 1st tower fore-aft bending mode DOF (internal DOF index = DOF_TFA1), m/s
          6   -1.029383987E-01                                             F               2         ED First time derivative of 1st tower side-to-side bending mode DOF (internal DOF index = DOF_TSS1), m/s
          7   -2.215831308E-03                                             F               2         ED First time derivative of 2nd tower fore-aft bending mode DOF (internal DOF index = DOF_TFA2), m/s
          8    3.243851097E-05                                             F               2         ED First time derivative of 2nd tower side-to-side bending mode DOF (internal DOF index = DOF_TSS2), m/s
          9    5.083653331E-01                                             T               2         BD_1 finite element node 2 (number of elements = 1; element order = 1) translational displacement in X, m
         10   -6.975845337E+01                                             T               2         BD_1 finite element node 2 (number of elements = 1; element order = 1) translational displacement in Y, m
         11   -2.714814949E+01                                             T               2         BD_1 finite element node 2 (number of elements = 1; element order = 1) translational displacement in Z, m
         12    7.400142550E-01                                             T               2         BD_1 finite element node 2 (number of elements = 1; element order = 1) rotational displacement in X, rad
         13    1.845542043E-01                                             T               2         BD_1 finite element node 2 (number of elements = 1; element order = 1) rotational displacement in Y, rad
         14   -4.667933285E-01                                             T               2         BD_1 finite element node 2 (number of elements = 1; element order = 1) rotational displacement in Z, rad
         15   -1.288867474E+00                                             T               2         BD_1 First time derivative of finite element node 2 (number of elements = 1; element order = 1) translational displacement in X, m/s
         16   -6.237413025E+01                                             T               2         BD_1 First time derivative of finite element node 2 (number of elements = 1; element order = 1) translational displacement in Y, m/s
         17   -5.748497772E+01                                             T               2         BD_1 First time derivative of finite element node 2 (number of elements = 1; element order = 1) translational displacement in Z, m/s
         18    8.239842057E-01                                             T               2         BD_1 First time derivative of finite element node 2 (number of elements = 1; element order = 1) rotational displacement in X, rad/s
         19   -7.283871062E-03                                             T               2         BD_1 First time derivative of finite element node 2 (number of elements = 1; element order = 1) rotational displacement in Y, rad/s
         20   -2.683494473E-03                                             T               2         BD_1 First time derivative of finite element node 2 (number of elements = 1; element order = 1) rotational displacement in Z, rad/s
         21   -5.190433562E-02                                             T               2         BD_2 finite element node 2 (number of elements = 1; element order = 1) translational displacement in X, m
         22   -6.966071320E+01                                             T               2         BD_2 finite element node 2 (number of elements = 1; element order = 1) translational displacement in Y, m
         23   -2.713661575E+01                                             T               2         BD_2 finite element node 2 (number of elements = 1; element order = 1) translational displacement in Z, m
         24    7.414298058E-01                                             T               2         BD_2 finite element node 2 (number of elements = 1; element order = 1) rotational displacement in X, rad
         25    1.789424270E-01                                             T               2         BD_2 finite element node 2 (number of elements = 1; element order = 1) rotational displacement in Y, rad
         26   -4.676810801E-01                                             T               2         BD_2 finite element node 2 (number of elements = 1; element order = 1) rotational displacement in Z, rad
         27    8.047593385E-02                                             T               2         BD_2 First time derivative of finite element node 2 (number of elements = 1; element order = 1) translational displacement in X, m/s
         28   -6.257729721E+01                                             T               2         BD_2 First time derivative of finite element node 2 (number of elements = 1; element order = 1) translational displacement in Y, m/s
         29   -5.750233459E+01                                             T               2         BD_2 First time derivative of finite element node 2 (number of elements = 1; element order = 1) translational displacement in Z, m/s
         30    8.239777088E-01                                             T               2         BD_2 First time derivative of finite element node 2 (number of elements = 1; element order = 1) rotational displacement in X, rad/s
         31    1.342977164E-03                                             T               2         BD_2 First time derivative of finite element node 2 (number of elements = 1; element order = 1) rotational displacement in Y, rad/s
         32    7.623032667E-03                                             T               2         BD_2 First time derivative of finite element node 2 (number of elements = 1; element order = 1) rotational displacement in Z, rad/s
         33    3.370494545E-01                                             T               2         BD_3 finite element node 2 (number of elements = 1; element order = 1) translational displacement in X, m
         34   -6.969992065E+01                                             T               2         BD_3 finite element node 2 (number of elements = 1; element order = 1) translational displacement in Y, m
         35   -2.722628212E+01                                             T               2         BD_3 finite element node 2 (number of elements = 1; element order = 1) translational displacement in Z, m
         36    7.406824231E-01                                             T               2         BD_3 finite element node 2 (number of elements = 1; element order = 1) rotational displacement in X, rad
         37    1.809597909E-01                                             T               2         BD_3 finite element node 2 (number of elements = 1; element order = 1) rotational displacement in Y, rad
         38   -4.622325003E-01                                             T               2         BD_3 finite element node 2 (number of elements = 1; element order = 1) rotational displacement in Z, rad
         39   -4.476345181E-01                                             T               2         BD_3 First time derivative of finite element node 2 (number of elements = 1; element order = 1) translational displacement in X, m/s
         40   -6.248886108E+01                                             T               2         BD_3 First time derivative of finite element node 2 (number of elements = 1; element order = 1) translational displacement in Y, m/s
         41   -5.732059860E+01                                             T               2         BD_3 First time derivative of finite element node 2 (number of elements = 1; element order = 1) translational displacement in Z, m/s
         42    8.239725828E-01                                             T               2         BD_3 First time derivative of finite element node 2 (number of elements = 1; element order = 1) rotational displacement in X, rad/s
         43    5.925494712E-03                                             T               2         BD_3 First time derivative of finite element node 2 (number of elements = 1; element order = 1) rotational displacement in Y, rad/s
         44   -4.953975789E-03                                             T               2         BD_3 First time derivative of finite element node 2 (number of elements = 1; element order = 1) rotational displacement in Z, rad/s

Order of continuous state derivatives:
   Row/Column Operating Point                                       Rotating Frame? Derivative Order Description
   ---------- ---------------                                       --------------- ---------------- -----------
          1   -5.346023440E-01                                             F               2         First time derivative of ED 1st tower fore-aft bending mode DOF (internal DOF index = DOF_TFA1), m/s
          2   -1.029383987E-01                                             F               2         First time derivative of ED 1st tower side-to-side bending mode DOF (internal DOF index = DOF_TSS1), m/s
          3   -2.215831308E-03                                             F               2         First time derivative of ED 2nd tower fore-aft bending mode DOF (internal DOF index = DOF_TFA2), m/s
          4    3.243851097E-05                                             F               2         First time derivative of ED 2nd tower side-to-side bending mode DOF (internal DOF index = DOF_TSS2), m/s
          5   -3.434089124E-01                                             F               2         First time derivative of ED First time derivative of 1st tower fore-aft bending mode DOF (internal DOF index = DOF_TFA1), m/s/s
          6   -6.654576957E-02                                             F               2         First time derivative of ED First time derivative of 1st tower side-to-side bending mode DOF (internal DOF index = DOF_TSS1), m/s/s
          7   -1.988412999E-02                                             F               2         First time derivative of ED First time derivative of 2nd tower fore-aft bending mode DOF (internal DOF index = DOF_TFA2), m/s/s
          8   -2.679705154E-03                                             F               2         First time derivative of ED First time derivative of 2nd tower side-to-side bending mode DOF (internal DOF index = DOF_TSS2), m/s/s
          9   -1.288867474E+00                                             T               2         First time derivative of BD_1 finite element node 2 (number of elements = 1; element order = 1) translational displacement in X, m/s
         10   -6.237413025E+01                                             T               2         First time derivative of BD_1 finite element node 2 (number of elements = 1; element order = 1) translational displacement in Y, m/s
         11   -5.748497772E+01                                             T               2         First time derivative of BD_1 finite element node 2 (number of elements = 1; element order = 1) translational displacement in Z, m/s
         12    8.239842057E-01                                             T               2         First time derivative of BD_1 finite element node 2 (number of elements = 1; element order = 1) rotational displacement in X, rad/s
         13   -7.283871062E-03                                             T               2         First time derivative of BD_1 finite element node 2 (number of elements = 1; element order = 1) rotational displacement in Y, rad/s
         14   -2.683494473E-03                                             T               2         First time derivative of BD_1 finite element node 2 (number of elements = 1; element order = 1) rotational displacement in Z, rad/s
         15   -4.784909487E-01                                             T               2         First time derivative of BD_1 First time derivative of finite element node 2 (number of elements = 1; element order = 1) translational displacement in X, m/s/s
         16    4.757238388E+01                                             T               2         First time derivative of BD_1 First time derivative of finite element node 2 (number of elements = 1; element order = 1) translational displacement in Y, m/s/s
         17   -5.140071487E+01                                             T               2         First time derivative of BD_1 First time derivative of finite element node 2 (number of elements = 1; element order = 1) translational displacement in Z, m/s/s
         18   -2.158564748E-03                                             T               2         First time derivative of BD_1 First time derivative of finite element node 2 (number of elements = 1; element order = 1) rotational displacement in X, rad/s/s
         19   -1.001424994E-02                                             T               2         First time derivative of BD_1 First time derivative of finite element node 2 (number of elements = 1; element order = 1) rotational displacement in Y, rad/s/s
         20    5.851416383E-03                                             T               2         First time derivative of BD_1 First time derivative of finite element node 2 (number of elements = 1; element order = 1) rotational displacement in Z, rad/s/s
         21    8.047593385E-02                                             T               2         First time derivative of BD_2 finite element node 2 (number of elements = 1; element order = 1) translational displacement in X, m/s
         22   -6.257729721E+01                                             T               2         First time derivative of BD_2 finite element node 2 (number of elements = 1; element order = 1) translational displacement in Y, m/s
         23   -5.750233459E+01                                             T               2         First time derivative of BD_2 finite element node 2 (number of elements = 1; element order = 1) translational displacement in Z, m/s
         24    8.239777088E-01                                             T               2         First time derivative of BD_2 finite element node 2 (number of elements = 1; element order = 1) rotational displacement in X, rad/s
         25    1.342977164E-03                                             T               2         First time derivative of BD_2 finite element node 2 (number of elements = 1; element order = 1) rotational displacement in Y, rad/s
         26    7.623032667E-03                                             T               2         First time derivative of BD_2 finite element node 2 (number of elements = 1; element order = 1) rotational displacement in Z, rad/s
         27    1.162474513E+00                                             T               2         First time derivative of BD_2 First time derivative of finite element node 2 (number of elements = 1; element order = 1) translational displacement in X, m/s/s
         28    4.739411545E+01                                             T               2         First time derivative of BD_2 First time derivative of finite element node 2 (number of elements = 1; element order = 1) translational displacement in Y, m/s/s
         29   -5.135795593E+01                                             T               2         First time derivative of BD_2 First time derivative of finite element node 2 (number of elements = 1; element order = 1) translational displacement in Z, m/s/s
         30   -2.012320096E-03                                             T               2         First time derivative of BD_2 First time derivative of finite element node 2 (number of elements = 1; element order = 1) rotational displacement in X, rad/s/s
         31    1.001651492E-02                                             T               2         First time derivative of BD_2 First time derivative of finite element node 2 (number of elements = 1; element order = 1) rotational displacement in Y, rad/s/s
         32    5.498819053E-03                                             T               2         First time derivative of BD_2 First time derivative of finite element node 2 (number of elements = 1; element order = 1) rotational displacement in Z, rad/s/s
         33   -4.476345181E-01                                             T               2         First time derivative of BD_3 finite element node 2 (number of elements = 1; element order = 1) translational displacement in X, m/s
         34   -6.248886108E+01                                             T               2         First time derivative of BD_3 finite element node 2 (number of elements = 1; element order = 1) translational displacement in Y, m/s
         35   -5.732059860E+01                                             T               2         First time derivative of BD_3 finite element node 2 (number of elements = 1; element order = 1) translational displacement in Z, m/s
         36    8.239725828E-01                                             T               2         First time derivative of BD_3 finite element node 2 (number of elements = 1; element order = 1) rotational displacement in X, rad/s
         37    5.925494712E-03                                             T               2         First time derivative of BD_3 finite element node 2 (number of elements = 1; element order = 1) rotational displacement in Y, rad/s
         38   -4.953975789E-03                                             T               2         First time derivative of BD_3 finite element node 2 (number of elements = 1; element order = 1) rotational displacement in Z, rad/s
         39   -1.874477744E+00                                             T               2         First time derivative of BD_3 First time derivative of finite element node 2 (number of elements = 1; element order = 1) translational displacement in X, m/s/s
         40    4.752452469E+01                                             T               2         First time derivative of BD_3 First time derivative of finite element node 2 (number of elements = 1; element order = 1) translational displacement in Y, m/s/s
         41   -5.122237396E+01                                             T               2         First time derivative of BD_3 First time derivative of finite element node 2 (number of elements = 1; element order = 1) translational displacement in Z, m/s/s
         42   -2.260614187E-03                                             T               2         First time derivative of BD_3 First time derivative of finite element node 2 (number of elements = 1; element order = 1) rotational displacement in X, rad/s/s
         43   -4.170289321E-04                                             T               2         First time derivative of BD_3 First time derivative of finite element node 2 (number of elements = 1; element order = 1) rotational displacement in Y, rad/s/s
         44   -1.175349578E-02                                             T               2         First time derivative of BD_3 First time derivative of finite element node 2 (number of elements = 1; element order = 1) rotational displacement in Z, rad/s/s


Linearized state matrices:

A: 44 x 44
    0.000000000E+00  0.000000000E+00  0.000000000E+00  0.000000000E+00  1.000000000E+00  0.000000000E+00  0.000000000E+00  0.000000000E+00  0.000000000E+00  0.000000000E+00  0.000000000E+00  0.000000000E+00  0.000000000E+00  0.000000000E+00  0.000000000E+00  0.000000000E+00  0.000000000E+00  0.000000000E+00  0.000000000E+00  0.000000000E+00  0.000000000E+00  0.000000000E+00  0.000000000E+00  0.000000000E+00  0.000000000E+00  0.000000000E+00  0.000000000E+00  0.000000000E+00  0.000000000E+00  0.000000000E+00  0.000000000E+00  0.000000000E+00  0.000000000E+00  0.000000000E+00  0.000000000E+00  0.000000000E+00  0.000000000E+00  0.000000000E+00  0.000000000E+00  0.000000000E+00  0.000000000E+00  0.000000000E+00  0.000000000E+00  0.000000000E+00
    0.000000000E+00  0.000000000E+00  0.000000000E+00  0.000000000E+00  0.000000000E+00  1.000000000E+00  0.000000000E+00  0.000000000E+00  0.000000000E+00  0.000000000E+00  0.000000000E+00  0.000000000E+00  0.000000000E+00  0.000000000E+00  0.000000000E+00  0.000000000E+00  0.000000000E+00  0.000000000E+00  0.000000000E+00  0.000000000E+00  0.000000000E+00  0.000000000E+00  0.000000000E+00  0.000000000E+00  0.000000000E+00  0.000000000E+00  0.000000000E+00  0.000000000E+00  0.000000000E+00  0.000000000E+00  0.000000000E+00  0.000000000E+00  0.000000000E+00  0.000000000E+00  0.000000000E+00  0.000000000E+00  0.000000000E+00  0.000000000E+00  0.000000000E+00  0.000000000E+00  0.000000000E+00  0.000000000E+00  0.000000000E+00  0.000000000E+00
    0.000000000E+00  0.000000000E+00  0.000000000E+00  0.000000000E+00  0.000000000E+00  0.000000000E+00  1.000000000E+00  0.000000000E+00  0.000000000E+00  0.000000000E+00  0.000000000E+00  0.000000000E+00  0.000000000E+00  0.000000000E+00  0.000000000E+00  0.000000000E+00  0.000000000E+00  0.000000000E+00  0.000000000E+00  0.000000000E+00  0.000000000E+00  0.000000000E+00  0.000000000E+00  0.000000000E+00  0.000000000E+00  0.000000000E+00  0.000000000E+00  0.000000000E+00  0.000000000E+00  0.000000000E+00  0.000000000E+00  0.000000000E+00  0.000000000E+00  0.000000000E+00  0.000000000E+00  0.000000000E+00  0.000000000E+00  0.000000000E+00  0.000000000E+00  0.000000000E+00  0.000000000E+00  0.000000000E+00  0.000000000E+00  0.000000000E+00
    0.000000000E+00  0.000000000E+00  0.000000000E+00  0.000000000E+00  0.000000000E+00  0.000000000E+00  0.000000000E+00  1.000000000E+00  0.000000000E+00  0.000000000E+00  0.000000000E+00  0.000000000E+00  0.000000000E+00  0.000000000E+00  0.000000000E+00  0.000000000E+00  0.000000000E+00  0.000000000E+00  0.000000000E+00  0.000000000E+00  0.000000000E+00  0.000000000E+00  0.000000000E+00  0.000000000E+00  0.000000000E+00  0.000000000E+00  0.000000000E+00  0.000000000E+00  0.000000000E+00  0.000000000E+00  0.000000000E+00  0.000000000E+00  0.000000000E+00  0.000000000E+00  0.000000000E+00  0.000000000E+00  0.000000000E+00  0.000000000E+00  0.000000000E+00  0.000000000E+00  0.000000000E+00  0.000000000E+00  0.000000000E+00  0.000000000E+00
   -2.177281143E+02  5.122452040E+00 -1.827031667E+03  2.156433262E+02 -6.116346744E-01 -8.270190730E-02 -4.997322642E+00 -2.650342268E+00  6.074761488E+01  3.837098431E+01  3.865163334E+01  2.214241534E+02 -8.055144147E+01 -4.037300088E+00  1.845916685E-01  7.785659254E-02  7.833316028E-02  4.488371870E-01 -2.454525045E-01 -8.179523281E-03  1.305567311E+01  1.146247429E+01 -5.010296862E+01  2.110849126E+02 -9.255676792E+01 -1.783548538E+00  3.979937095E-02  2.306994349E-02 -1.015115148E-01  4.278671407E-01 -2.819356218E-01 -3.616248945E-03  4.926349099E+01  2.326951431E+01  1.141872416E+01  1.624915730E+02 -9.095945155E+01  5.821812085E+00  1.497352200E-01  4.718168868E-02  2.317944287E-02  3.293763001E-01 -2.771282723E-01  1.179394937E-02
    3.140959380E+00 -1.176752899E+03  6.469978300E+01 -1.057801550E+04 -9.854491981E-02 -2.452397666E+00 -8.407212232E-01 -2.328479683E+01  4.113945603E+01 -8.330803145E+01  3.908602159E+02 -2.880259634E+02 -3.029289080E+01  2.221827666E-02  1.241635449E-01 -1.676172514E-01  7.922263825E-01 -5.838483201E-01 -9.232456025E-02  4.577450332E-05  2.942845195E+00 -5.700189134E-02  1.732278166E+02  3.872419633E+02  5.115184582E+01 -2.942029807E-02  8.541814004E-03  3.910763783E-04  3.509656646E-01  7.849080232E-01  1.557726578E-01 -5.755333355E-05  2.849845029E+01 -5.655422562E+01 -5.643795594E+02 -8.069798972E+01 -5.349826735E+00  9.857281158E-03  8.796642036E-02 -1.162823249E-01 -1.143193194E+00 -1.635998537E-01 -1.634293976E-02  2.897977069E-05
   -8.879204572E+01  4.077242609E-01 -1.850614812E+03  1.832050154E+01 -2.447683377E-01 -2.772372202E-02 -4.989070678E+00 -2.696732583E-01  2.510404153E+01  1.735510208E+01  4.172981491E+01  4.192957941E+01  5.683447601E-01 -4.413496691E+00  7.622811411E-02  3.528894003E-02  8.455019215E-02  8.499713292E-02  1.686977509E-03 -8.940407020E-03 -2.703868002E+01 -1.203680165E+01 -5.406366482E+01  3.081961054E+01 -1.253096613E+01 -1.950821795E+00 -8.207921428E-02 -2.455123223E-02 -1.095612853E-01  6.246490220E-02 -3.812294406E-02 -3.953280158E-03  1.250373038E+01  9.501421517E-01  1.233119391E+01 -2.166294223E+01 -1.070821838E+01  6.364656498E+00  3.798456749E-02  1.963846908E-03  2.500918582E-02 -4.390797449E-02 -3.263472239E-02  1.289403632E-02
    3.093097658E-01 -1.456814507E+02  3.799987824E+00 -4.117617300E+03 -3.207058308E-02 -3.166891863E-01 -8.611376601E-02 -9.167140597E+00  1.204357090E+01 -2.333327415E+01  2.104668286E+01 -1.308558027E+01  4.626541731E-01  1.038432192E-02  3.656671932E-02 -4.721500435E-02  4.273854359E-02 -2.653416395E-02  1.389046438E-03  2.097287495E-05  9.956152115E+00 -1.884788544E+01  9.351764210E+00  2.340003780E+01  4.857962276E+00 -1.361305573E-02  3.024790693E-02 -3.816280090E-02  1.902663241E-02  4.742178216E-02  1.477817330E-02 -2.747577636E-05  1.125807782E+01 -2.193590349E+01 -3.053215003E+01 -1.838938372E+00  1.793502119E+00  3.382421364E-03  3.430065500E-02 -4.453807999E-02 -6.176582684E-02 -3.737316057E-03  5.443196846E-03  7.478854398E-06
    0.000000000E+00  0.000000000E+00  0.000000000E+00  0.000000000E+00  0.000000000E+00  0.000000000E+00  0.000000000E+00  0.000000000E+00  0.000000000E+00  0.000000000E+00  0.000000000E+00  0.000000000E+00  0.000000000E+00  0.000000000E+00  1.000000000E+00  5.551115123E-17 -2.775557562E-17  0.000000000E+00  0.000000000E+00  0.000000000E+00  0.000000000E+00  0.000000000E+00  0.000000000E+00  0.000000000E+00  0.000000000E+00  0.000000000E+00  0.000000000E+00  0.000000000E+00  0.000000000E+00  0.000000000E+00  0.000000000E+00  0.000000000E+00  0.000000000E+00  0.000000000E+00  0.000000000E+00  0.000000000E+00  0.000000000E+00  0.000000000E+00  0.000000000E+00  0.000000000E+00  0.000000000E+00  0.000000000E+00  0.000000000E+00  0.000000000E+00
    0.000000000E+00  0.000000000E+00  0.000000000E+00  0.000000000E+00  0.000000000E+00  0.000000000E+00  0.000000000E+00  0.000000000E+00  0.000000000E+00  0.000000000E+00  0.000000000E+00  0.000000000E+00  0.000000000E+00  0.000000000E+00  5.551115123E-17  1.000000000E+00  0.000000000E+00  0.000000000E+00  0.000000000E+00  0.000000000E+00  0.000000000E+00  0.000000000E+00  0.000000000E+00  0.000000000E+00  0.000000000E+00  0.000000000E+00  0.000000000E+00  0.000000000E+00  0.000000000E+00  0.000000000E+00  0.000000000E+00  0.000000000E+00  0.000000000E+00  0.000000000E+00  0.000000000E+00  0.000000000E+00  0.000000000E+00  0.000000000E+00  0.000000000E+00  0.000000000E+00  0.000000000E+00  0.000000000E+00  0.000000000E+00  0.000000000E+00
    0.000000000E+00  0.000000000E+00  0.000000000E+00  0.000000000E+00  0.000000000E+00  0.000000000E+00  0.000000000E+00  0.000000000E+00  0.000000000E+00  0.000000000E+00  0.000000000E+00  0.000000000E+00  0.000000000E+00  0.000000000E+00 -2.775557562E-17  0.000000000E+00  1.000000000E+00  0.000000000E+00  0.000000000E+00  0.000000000E+00  0.000000000E+00  0.000000000E+00  0.000000000E+00  0.000000000E+00  0.000000000E+00  0.000000000E+00  0.000000000E+00  0.000000000E+00  0.000000000E+00  0.000000000E+00  0.000000000E+00  0.000000000E+00  0.000000000E+00  0.000000000E+00  0.000000000E+00  0.000000000E+00  0.000000000E+00  0.000000000E+00  0.000000000E+00  0.000000000E+00  0.000000000E+00  0.000000000E+00  0.000000000E+00  0.000000000E+00