# vtk DataFile Version 2.0
Plane
ASCII
 
DATASET STRUCTURED_POINTS
DIMENSIONS 4 1 6
ORIGIN      -10.00000000      0.00000000      0.00000000
SPACING       6.66666667      0.00000000      6.00000000
POINT_DATA 24
VECTORS Velocity double
  0.00000000E+000  0.00000000E+000  0.00000000E+000
  0.00000000E+000  0.00000000E+000  0.00000000E+000
  0.00000000E+000  0.00000000E+000  0.00000000E+000
  0.00000000E+000  0.00000000E+000  0.00000000E+000
  0.91244354E+001  0.00000000E+000  0.00000000E+000
  0.91244354E+001  0.00000000E+000  0.00000000E+000
  0.91244354E+001  0.00000000E+000  0.00000000E+000
  0.91244354E+001  0.00000000E+000  0.00000000E+000
  0.97793277E+001  0.00000000E+000  0.00000000E+000
  0.97793277E+001  0.00000000E+000  0.00000000E+000
  0.97793277E+001  0.00000000E+000  0.00000000E+000
  0.97793277E+001  0.00000000E+000  0.00000000E+000
  0.10183994E+002  0.00000000E+000  0.00000000E+000
  0.10183994E+002  0.00000000E+000  0.00000000E+000
  0.10183994E+002  0.00000000E+000  0.00000000E+000
  0.10183994E+002  0.00000000E+000  0.00000000E+000
  0.10481224E+002  0.00000000E+000  0.00000000E+000
  0.10481224E+002  0.00000000E+000  0.00000000E+000
  0.10481224E+002  0.00000000E+000  0.00000000E+000
  0.10481224E+002  0.00000000E+000  0.00000000E+000
  0.10717735E+002  0.00000000E+000  0.00000000E+000
  0.10717735E+002  0.00000000E+000  0.00000000E+000
  0.10717735E+002  0.00000000E+000  0.00000000E+000
  0.10717735E+002  0.00000000E+000  0.00000000E+000
