
Linearized model: Predictions were generated on 03-May-2021 at 13:01:07 using OpenFAST, compiled as a 64-bit application using single precision at commit b43503ee-dirty
 linked with  NWTC Subroutine Library; ElastoDyn; HydroDyn; MAP++ (<1.20.10>, <Sep-14-2020>)

Description from the FAST input file: Generated     with          - AeroElasticSE FAST driver

Simulation information:
   Simulation time:                   599.0000 s
   Rotor Speed:                         0.0000 rad/s
   Azimuth:                             0.0000 rad
   Wind Speed:                          0.0000 m/s
   Number of continuous states:       134
   Number of discrete states:           0
   Number of constraint states:         0
   Number of inputs:                    0
   Number of outputs:                   0
   Jacobians included in this file?    No

Order of continuous states:
   Row/Column Operating Point                                                   Rotating Frame? Derivative Order Description
   ---------- ---------------                                                   --------------- ---------------- -----------
          1     8.08769702911E-001                                                     F               2         ED Platform horizontal surge translation DOF (internal DOF index = DOF_Sg), m
          2     1.22886907775E-003                                                     F               2         ED Platform horizontal sway translation DOF (internal DOF index = DOF_Sw), m
          3     1.21486142278E-001                                                     F               2         ED Platform vertical heave translation DOF (internal DOF index = DOF_Hv), m
          4     3.34235635819E-004                                                     F               2         ED Platform roll tilt rotation DOF (internal DOF index = DOF_R), rad
          5    -2.44258288294E-002                                                     F               2         ED Platform pitch tilt rotation DOF (internal DOF index = DOF_P), rad
          6     2.90563070848E-006                                                     F               2         ED Platform yaw rotation DOF (internal DOF index = DOF_Y), rad
          7    -2.81402468681E-001                                                     F               2         ED 1st tower fore-aft bending mode DOF (internal DOF index = DOF_TFA1), m
          8     3.92723688856E-003                                                     F               2         ED 1st tower side-to-side bending mode DOF (internal DOF index = DOF_TSS1), m
          9    -1.88204143196E-002                                                     F               2         ED 2nd tower fore-aft bending mode DOF (internal DOF index = DOF_TFA2), m
         10     1.96738837985E-004                                                     F               2         ED 2nd tower side-to-side bending mode DOF (internal DOF index = DOF_TSS2), m
         11     2.05118581653E-002                                                     T               2         ED 1st flapwise bending-mode DOF of blade 1 (internal DOF index = DOF_BF(1,1)), m
         12     6.05280995369E-001                                                     T               2         ED 1st flapwise bending-mode DOF of blade 2 (internal DOF index = DOF_BF(2,1)), m
         13    -1.30893513560E-001                                                     T               2         ED 1st flapwise bending-mode DOF of blade 3 (internal DOF index = DOF_BF(3,1)), m
         14     1.98424677365E-003                                                     T               2         ED 1st edgewise bending-mode DOF of blade 1 (internal DOF index = DOF_BE(1,1)), m
         15    -8.68902504444E-001                                                     T               2         ED 1st edgewise bending-mode DOF of blade 2 (internal DOF index = DOF_BE(2,1)), m
         16     9.25614655018E-001                                                     T               2         ED 1st edgewise bending-mode DOF of blade 3 (internal DOF index = DOF_BE(3,1)), m
         17    -2.18222546391E-003                                                     T               2         ED 2nd flapwise bending-mode DOF of blade 1 (internal DOF index = DOF_BF(1,2)), m
         18    -1.52881309390E-001                                                     T               2         ED 2nd flapwise bending-mode DOF of blade 2 (internal DOF index = DOF_BF(2,2)), m
         19     9.41280201077E-002                                                     T               2         ED 2nd flapwise bending-mode DOF of blade 3 (internal DOF index = DOF_BF(3,2)), m
         20    -6.82664662600E-002                                                     F               2         ED First time derivative of Platform horizontal surge translation DOF (internal DOF index = DOF_Sg), m/s
         21    -1.53781307745E-004                                                     F               2         ED First time derivative of Platform horizontal sway translation DOF (internal DOF index = DOF_Sw), m/s
         22     4.57079708576E-003                                                     F               2         ED First time derivative of Platform vertical heave translation DOF (internal DOF index = DOF_Hv), m/s
         23     9.37221557251E-005                                                     F               2         ED First time derivative of Platform roll tilt rotation DOF (internal DOF index = DOF_R), rad/s
         24    -5.89593499899E-003                                                     F               2         ED First time derivative of Platform pitch tilt rotation DOF (internal DOF index = DOF_P), rad/s
         25    -1.00426859717E-006                                                     F               2         ED First time derivative of Platform yaw rotation DOF (internal DOF index = DOF_Y), rad/s
         26    -2.88039036095E-002                                                     F               2         ED First time derivative of 1st tower fore-aft bending mode DOF (internal DOF index = DOF_TFA1), m/s
         27     4.94568259455E-004                                                     F               2         ED First time derivative of 1st tower side-to-side bending mode DOF (internal DOF index = DOF_TSS1), m/s
         28    -2.70486256341E-004                                                     F               2         ED First time derivative of 2nd tower fore-aft bending mode DOF (internal DOF index = DOF_TFA2), m/s
         29     3.40817678079E-006                                                     F               2         ED First time derivative of 2nd tower side-to-side bending mode DOF (internal DOF index = DOF_TSS2), m/s
         30    -2.98073422164E-002                                                     T               2         ED First time derivative of 1st flapwise bending-mode DOF of blade 1 (internal DOF index = DOF_BF(1,1)), m/s
         31    -2.04328205436E-002                                                     T               2         ED First time derivative of 1st flapwise bending-mode DOF of blade 2 (internal DOF index = DOF_BF(2,1)), m/s
         32    -2.15625129640E-002                                                     T               2         ED First time derivative of 1st flapwise bending-mode DOF of blade 3 (internal DOF index = DOF_BF(3,1)), m/s
         33    -3.72638530098E-003                                                     T               2         ED First time derivative of 1st edgewise bending-mode DOF of blade 1 (internal DOF index = DOF_BE(1,1)), m/s
         34    -3.76105308533E-003                                                     T               2         ED First time derivative of 1st edgewise bending-mode DOF of blade 2 (internal DOF index = DOF_BE(2,1)), m/s
         35    -1.21574976947E-003                                                     T               2         ED First time derivative of 1st edgewise bending-mode DOF of blade 3 (internal DOF index = DOF_BE(3,1)), m/s
         36     3.12045752071E-003                                                     T               2         ED First time derivative of 2nd flapwise bending-mode DOF of blade 1 (internal DOF index = DOF_BF(1,2)), m/s
         37     2.61529441923E-003                                                     T               2         ED First time derivative of 2nd flapwise bending-mode DOF of blade 2 (internal DOF index = DOF_BF(2,2)), m/s
         38     2.96729733236E-003                                                     T               2         ED First time derivative of 2nd flapwise bending-mode DOF of blade 3 (internal DOF index = DOF_BF(3,2)), m/s
         39     0.00000000000E+000                                                     F               1         HD ExctnPtfmSg1
         40     0.00000000000E+000                                                     F               1         HD ExctnPtfmSg2
         41     0.00000000000E+000                                                     F               1         HD ExctnPtfmSg3
         42     0.00000000000E+000                                                     F               1         HD ExctnPtfmSg4
         43     0.00000000000E+000                                                     F               1         HD ExctnPtfmSg5
         44     0.00000000000E+000                                                     F               1         HD ExctnPtfmSg6
         45     0.00000000000E+000                                                     F               1         HD ExctnPtfmSg7
         46     0.00000000000E+000                                                     F               1         HD ExctnPtfmSg8
         47     0.00000000000E+000                                                     F               1         HD ExctnPtfmSw1
         48     0.00000000000E+000                                                     F               1         HD ExctnPtfmSw2
         49     0.00000000000E+000                                                     F               1         HD ExctnPtfmHv1
         50     0.00000000000E+000                                                     F               1         HD ExctnPtfmHv2
         51     0.00000000000E+000                                                     F               1         HD ExctnPtfmHv3
         52     0.00000000000E+000                                                     F               1         HD ExctnPtfmHv4
         53     0.00000000000E+000                                                     F               1         HD ExctnPtfmHv5
         54     0.00000000000E+000                                                     F               1         HD ExctnPtfmHv6
         55     0.00000000000E+000                                                     F               1         HD ExctnPtfmHv7
         56     0.00000000000E+000                                                     F               1         HD ExctnPtfmHv8
         57     0.00000000000E+000                                                     F               1         HD ExctnPtfmR1
         58     0.00000000000E+000                                                     F               1         HD ExctnPtfmR2
         59     0.00000000000E+000                                                     F               1         HD ExctnPtfmR3
         60     0.00000000000E+000                                                     F               1         HD ExctnPtfmR4
         61     0.00000000000E+000                                                     F               1         HD ExctnPtfmR5
         62     0.00000000000E+000                                                     F               1         HD ExctnPtfmR6
         63     0.00000000000E+000                                                     F               1         HD ExctnPtfmR7
         64     0.00000000000E+000                                                     F               1         HD ExctnPtfmR8
         65     0.00000000000E+000                                                     F               1         HD ExctnPtfmP1
         66     0.00000000000E+000                                                     F               1         HD ExctnPtfmP2
         67     0.00000000000E+000                                                     F               1         HD ExctnPtfmP3
         68     0.00000000000E+000                                                     F               1         HD ExctnPtfmP4
         69     0.00000000000E+000                                                     F               1         HD ExctnPtfmP5
         70     0.00000000000E+000                                                     F               1         HD ExctnPtfmP6
         71     0.00000000000E+000                                                     F               1         HD ExctnPtfmP7
         72     0.00000000000E+000                                                     F               1         HD ExctnPtfmP8
         73     0.00000000000E+000                                                     F               1         HD ExctnPtfmY1
         74     0.00000000000E+000                                                     F               1         HD ExctnPtfmY2
         75    -3.60713079317E-006                                                     F               1         HD RdtnPtfmSg1
         76    -2.52537702181E-005                                                     F               1         HD RdtnPtfmSg2
         77     2.29406250583E-005                                                     F               1         HD RdtnPtfmSg3
         78     7.73748324718E-004                                                     F               1         HD RdtnPtfmSg4
         79    -6.43100007437E-004                                                     F               1         HD RdtnPtfmSg5
         80    -3.49984094501E-002                                                     F               1         HD RdtnPtfmSg6
         81     8.48746523261E-002                                                     F               1         HD RdtnPtfmSg7
         82     1.94457497855E-005                                                     F               1         HD RdtnPtfmSg8
         83    -5.18354499945E-005                                                     F               1         HD RdtnPtfmSg9
         84    -1.93185042008E-004                                                     F               1         HD RdtnPtfmSg10
         85     1.02418218739E-003                                                     F               1         HD RdtnPtfmSg11
         86     4.02481388301E-003                                                     F               1         HD RdtnPtfmSg12
         87    -2.73314081132E-002                                                     F               1         HD RdtnPtfmSg13
         88    -2.09046542645E-001                                                     F               1         HD RdtnPtfmSg14
         89    -1.22908249978E-006                                                     F               1         HD RdtnPtfmSw1
         90    -1.20237427836E-006                                                     F               1         HD RdtnPtfmSw2
         91     5.84462611641E-007                                                     F               1         HD RdtnPtfmSw3
         92     1.11314557216E-005                                                     F               1         HD RdtnPtfmSw4
         93    -5.83322389502E-006                                                     F               1         HD RdtnPtfmSw5
         94    -8.79260260263E-005                                                     F               1         HD RdtnPtfmSw6
         95    -2.96056998195E-004                                                     F               1         HD RdtnPtfmSw7
         96    -8.22331514883E-007                                                     F               1         HD RdtnPtfmSw8
         97    -1.33529908908E-006                                                     F               1         HD RdtnPtfmSw9
         98    -2.41418729274E-006                                                     F               1         HD RdtnPtfmSw10
         99     1.54945264512E-005                                                     F               1         HD RdtnPtfmSw11
        100     5.37094419997E-005                                                     F               1         HD RdtnPtfmSw12
        101    -2.63217953034E-004                                                     F               1         HD RdtnPtfmSw13
        102    -1.75857450813E-004                                                     F               1         HD RdtnPtfmSw14
        103    -2.54864251474E-004                                                     F               1         HD RdtnPtfmHv1
        104     1.38468120713E-003                                                     F               1         HD RdtnPtfmHv2
        105     2.79231276363E-003                                                     F               1         HD RdtnPtfmHv3
        106    -1.44839799032E-002                                                     F               1         HD RdtnPtfmHv4
        107    -2.97718103975E-002                                                     F               1         HD RdtnPtfmHv5
        108     1.49533018470E-001                                                     F               1         HD RdtnPtfmHv6
        109     3.79315885368E-008                                                     F               1         HD RdtnPtfmR1
        110     2.07058093338E-007                                                     F               1         HD RdtnPtfmR2
        111     5.71546308947E-007                                                     F               1         HD RdtnPtfmR3
        112    -3.34009337166E-006                                                     F               1         HD RdtnPtfmR4
        113    -1.19529413496E-005                                                     F               1         HD RdtnPtfmR5
        114     6.71410452924E-005                                                     F               1         HD RdtnPtfmR6
        115     2.42676571361E-004                                                     F               1         HD RdtnPtfmR7
        116    -1.23139134303E-005                                                     F               1         HD RdtnPtfmR8
        117     4.37701746705E-005                                                     F               1         HD RdtnPtfmR9
        118     2.50357552432E-004                                                     F               1         HD RdtnPtfmR10
        119    -1.61253797160E-006                                                     F               1         HD RdtnPtfmP1
        120    -1.66581012309E-005                                                     F               1         HD RdtnPtfmP2
        121    -3.36377452186E-005                                                     F               1         HD RdtnPtfmP3
        122     2.27770855417E-004                                                     F               1         HD RdtnPtfmP4
        123     7.39849812817E-004                                                     F               1         HD RdtnPtfmP5
        124    -4.36995783821E-003                                                     F               1         HD RdtnPtfmP6
        125    -1.47995967418E-002                                                     F               1         HD RdtnPtfmP7
        126     7.79609486926E-004                                                     F               1         HD RdtnPtfmP8
        127    -2.86229839548E-003                                                     F               1         HD RdtnPtfmP9
        128    -1.54765238985E-002                                                     F               1         HD RdtnPtfmP10
        129     1.24060739459E-009                                                     F               1         HD RdtnPtfmY1
        130     3.06105785164E-009                                                     F               1         HD RdtnPtfmY2
        131     1.18077259081E-009                                                     F               1         HD RdtnPtfmY3
        132     1.87210353886E-008                                                     F               1         HD RdtnPtfmY4
        133    -2.28984244899E-008                                                     F               1         HD RdtnPtfmY5
        134    -5.71554892304E-007                                                     F               1         HD RdtnPtfmY6

Order of continuous state derivatives:
   Row/Column Operating Point                                                   Rotating Frame? Derivative Order Description
   ---------- ---------------                                                   --------------- ---------------- -----------
          1    -6.82664662600E-002                                                     F               2         First time derivative of ED Platform horizontal surge translation DOF (internal DOF index = DOF_Sg), m/s
          2    -1.53781307745E-004                                                     F               2         First time derivative of ED Platform horizontal sway translation DOF (internal DOF index = DOF_Sw), m/s
          3     4.57079708576E-003                                                     F               2         First time derivative of ED Platform vertical heave translation DOF (internal DOF index = DOF_Hv), m/s
          4     9.37221557251E-005                                                     F               2         First time derivative of ED Platform roll tilt rotation DOF (internal DOF index = DOF_R), rad/s
          5    -5.89593499899E-003                                                     F               2         First time derivative of ED Platform pitch tilt rotation DOF (internal DOF index = DOF_P), rad/s
          6    -1.00426859717E-006                                                     F               2         First time derivative of ED Platform yaw rotation DOF (internal DOF index = DOF_Y), rad/s
          7    -2.88039036095E-002                                                     F               2         First time derivative of ED 1st tower fore-aft bending mode DOF (internal DOF index = DOF_TFA1), m/s
          8     4.94568259455E-004                                                     F               2         First time derivative of ED 1st tower side-to-side bending mode DOF (internal DOF index = DOF_TSS1), m/s
          9    -2.70486256341E-004                                                     F               2         First time derivative of ED 2nd tower fore-aft bending mode DOF (internal DOF index = DOF_TFA2), m/s
         10     3.40817678079E-006                                                     F               2         First time derivative of ED 2nd tower side-to-side bending mode DOF (internal DOF index = DOF_TSS2), m/s
         11    -2.98073422164E-002                                                     T               2         First time derivative of ED 1st flapwise bending-mode DOF of blade 1 (internal DOF index = DOF_BF(1,1)), m/s
         12    -2.04328205436E-002                                                     T               2         First time derivative of ED 1st flapwise bending-mode DOF of blade 2 (internal DOF index = DOF_BF(2,1)), m/s
         13    -2.15625129640E-002                                                     T               2         First time derivative of ED 1st flapwise bending-mode DOF of blade 3 (internal DOF index = DOF_BF(3,1)), m/s
         14    -3.72638530098E-003                                                     T               2         First time derivative of ED 1st edgewise bending-mode DOF of blade 1 (internal DOF index = DOF_BE(1,1)), m/s
         15    -3.76105308533E-003                                                     T               2         First time derivative of ED 1st edgewise bending-mode DOF of blade 2 (internal DOF index = DOF_BE(2,1)), m/s
         16    -1.21574976947E-003                                                     T               2         First time derivative of ED 1st edgewise bending-mode DOF of blade 3 (internal DOF index = DOF_BE(3,1)), m/s
         17     3.12045752071E-003                                                     T               2         First time derivative of ED 2nd flapwise bending-mode DOF of blade 1 (internal DOF index = DOF_BF(1,2)), m/s
         18     2.61529441923E-003                                                     T               2         First time derivative of ED 2nd flapwise bending-mode DOF of blade 2 (internal DOF index = DOF_BF(2,2)), m/s
         19     2.96729733236E-003                                                     T               2         First time derivative of ED 2nd flapwise bending-mode DOF of blade 3 (internal DOF index = DOF_BF(3,2)), m/s
         20    -2.18634307384E-003                                                     F               2         First time derivative of ED First time derivative of Platform horizontal surge translation DOF (internal DOF index = DOF_Sg), m/s/s
         21     6.22191100774E-006                                                     F               2         First time derivative of ED First time derivative of Platform horizontal sway translation DOF (internal DOF index = DOF_Sw), m/s/s
         22    -4.72148880363E-003                                                     F               2         First time derivative of ED First time derivative of Platform vertical heave translation DOF (internal DOF index = DOF_Hv), m/s/s
         23     2.14793817577E-006                                                     F               2         First time derivative of ED First time derivative of Platform roll tilt rotation DOF (internal DOF index = DOF_R), rad/s/s
         24    -1.96374559891E-004                                                     F               2         First time derivative of ED First time derivative of Platform pitch tilt rotation DOF (internal DOF index = DOF_P), rad/s/s
         25    -2.83685501756E-008                                                     F               2         First time derivative of ED First time derivative of Platform yaw rotation DOF (internal DOF index = DOF_Y), rad/s/s
         26    -9.67962609138E-004                                                     F               2         First time derivative of ED First time derivative of 1st tower fore-aft bending mode DOF (internal DOF index = DOF_TFA1), m/s/s
         27     1.44635865581E-004                                                     F               2         First time derivative of ED First time derivative of 1st tower side-to-side bending mode DOF (internal DOF index = DOF_TSS1), m/s/s
         28    -9.98713949230E-006                                                     F               2         First time derivative of ED First time derivative of 2nd tower fore-aft bending mode DOF (internal DOF index = DOF_TFA2), m/s/s
         29     2.85154010271E-006                                                     F               2         First time derivative of ED First time derivative of 2nd tower side-to-side bending mode DOF (internal DOF index = DOF_TSS2), m/s/s
         30    -8.37650615722E-004                                                     T               2         First time derivative of ED First time derivative of 1st flapwise bending-mode DOF of blade 1 (internal DOF index = DOF_BF(1,1)), m/s/s
         31    -4.79047215777E-004                                                     T               2         First time derivative of ED First time derivative of 1st flapwise bending-mode DOF of blade 2 (internal DOF index = DOF_BF(2,1)), m/s/s
         32    -7.01389799360E-004                                                     T               2         First time derivative of ED First time derivative of 1st flapwise bending-mode DOF of blade 3 (internal DOF index = DOF_BF(3,1)), m/s/s
         33    -3.49468959030E-004                                                     T               2         First time derivative of ED First time derivative of 1st edgewise bending-mode DOF of blade 1 (internal DOF index = DOF_BE(1,1)), m/s/s
         34    -2.99354724120E-004                                                     T               2         First time derivative of ED First time derivative of 1st edgewise bending-mode DOF of blade 2 (internal DOF index = DOF_BE(2,1)), m/s/s
         35    -6.20637802058E-005                                                     T               2         First time derivative of ED First time derivative of 1st edgewise bending-mode DOF of blade 3 (internal DOF index = DOF_BE(3,1)), m/s/s
         36     1.13885878818E-004                                                     T               2         First time derivative of ED First time derivative of 2nd flapwise bending-mode DOF of blade 1 (internal DOF index = DOF_BF(1,2)), m/s/s
         37     4.49858889624E-005                                                     T               2         First time derivative of ED First time derivative of 2nd flapwise bending-mode DOF of blade 2 (internal DOF index = DOF_BF(2,2)), m/s/s