
Linearized model: Predictions were generated on 01-Jun-2020 at 20:00:47 using OpenFAST, compiled as a 64-bit application using double precision at commit 5e1604f3
 linked with  NWTC Subroutine Library; ElastoDyn; AeroDyn

Description from the FAST input file: OpenFAST2     model         for NM80 used in IEA task#29

Simulation information:
   Simulation time:                    10.0000 s
   Rotor Speed:                         0.0000 rad/s
   Azimuth:                             0.0000 rad
   Wind Speed:                          0.0000 m/s
   Number of continuous states:        28
   Number of discrete states:           0
   Number of constraint states:         0
   Number of inputs:                    6
   Number of outputs:                 108
   Jacobians included in this file?    No

Order of continuous states:
   Row/Column Operating Point                                    Rotating Frame? Derivative Order Description
   ---------- ---------------                                    --------------- ---------------- -----------
          1    0.00000000E+00                                           F               2         ED 1st tower fore-aft bending mode DOF (internal DOF index = DOF_TFA1), m
          2    0.00000000E+00                                           F               2         ED 1st tower side-to-side bending mode DOF (internal DOF index = DOF_TSS1), m
          3    0.00000000E+00                                           F               2         ED 2nd tower fore-aft bending mode DOF (internal DOF index = DOF_TFA2), m
          4    0.00000000E+00                                           F               2         ED 2nd tower side-to-side bending mode DOF (internal DOF index = DOF_TSS2), m
          5    0.00000000E+00                                           F               2         ED Drivetrain rotational-flexibility DOF (internal DOF index = DOF_DrTr), rad
          6    0.00000000E+00                                           T               2         ED 1st flapwise bending-mode DOF of blade 1 (internal DOF index = DOF_BF(1,1)), m
          7    0.00000000E+00                                           T               2         ED 1st flapwise bending-mode DOF of blade 2 (internal DOF index = DOF_BF(2,1)), m
          8    0.00000000E+00                                           T               2         ED 1st flapwise bending-mode DOF of blade 3 (internal DOF index = DOF_BF(3,1)), m
          9    0.00000000E+00                                           T               2         ED 1st edgewise bending-mode DOF of blade 1 (internal DOF index = DOF_BE(1,1)), m
         10    0.00000000E+00                                           T               2         ED 1st edgewise bending-mode DOF of blade 2 (internal DOF index = DOF_BE(2,1)), m
         11    0.00000000E+00                                           T               2         ED 1st edgewise bending-mode DOF of blade 3 (internal DOF index = DOF_BE(3,1)), m
         12    0.00000000E+00                                           T               2         ED 2nd flapwise bending-mode DOF of blade 1 (internal DOF index = DOF_BF(1,2)), m
         13    0.00000000E+00                                           T               2         ED 2nd flapwise bending-mode DOF of blade 2 (internal DOF index = DOF_BF(2,2)), m
         14    0.00000000E+00                                           T               2         ED 2nd flapwise bending-mode DOF of blade 3 (internal DOF index = DOF_BF(3,2)), m
         15    0.00000000E+00                                           F               2         ED First time derivative of 1st tower fore-aft bending mode DOF (internal DOF index = DOF_TFA1), m/s
         16    0.00000000E+00                                           F               2         ED First time derivative of 1st tower side-to-side bending mode DOF (internal DOF index = DOF_TSS1), m/s
         17    0.00000000E+00                                           F               2         ED First time derivative of 2nd tower fore-aft bending mode DOF (internal DOF index = DOF_TFA2), m/s
         18    0.00000000E+00                                           F               2         ED First time derivative of 2nd tower side-to-side bending mode DOF (internal DOF index = DOF_TSS2), m/s
         19    0.00000000E+00                                           F               2         ED First time derivative of Drivetrain rotational-flexibility DOF (internal DOF index = DOF_DrTr), rad/s
         20    0.00000000E+00                                           T               2         ED First time derivative of 1st flapwise bending-mode DOF of blade 1 (internal DOF index = DOF_BF(1,1)), m/s
         21    0.00000000E+00                                           T               2         ED First time derivative of 1st flapwise bending-mode DOF of blade 2 (internal DOF index = DOF_BF(2,1)), m/s
         22    0.00000000E+00                                           T               2         ED First time derivative of 1st flapwise bending-mode DOF of blade 3 (internal DOF index = DOF_BF(3,1)), m/s
         23    0.00000000E+00                                           T               2         ED First time derivative of 1st edgewise bending-mode DOF of blade 1 (internal DOF index = DOF_BE(1,1)), m/s
         24    0.00000000E+00                                           T               2         ED First time derivative of 1st edgewise bending-mode DOF of blade 2 (internal DOF index = DOF_BE(2,1)), m/s
         25    0.00000000E+00                                           T               2         ED First time derivative of 1st edgewise bending-mode DOF of blade 3 (internal DOF index = DOF_BE(3,1)), m/s
         26    0.00000000E+00                                           T               2         ED First time derivative of 2nd flapwise bending-mode DOF of blade 1 (internal DOF index = DOF_BF(1,2)), m/s
         27    0.00000000E+00                                           T               2         ED First time derivative of 2nd flapwise bending-mode DOF of blade 2 (internal DOF index = DOF_BF(2,2)), m/s
         28    0.00000000E+00                                           T               2         ED First time derivative of 2nd flapwise bending-mode DOF of blade 3 (internal DOF index = DOF_BF(3,2)), m/s

Order of continuous state derivatives:
   Row/Column Operating Point                                    Rotating Frame? Derivative Order Description
   ---------- ---------------                                    --------------- ---------------- -----------
          1    0.00000000E+00                                           F               2         First time derivative of ED 1st tower fore-aft bending mode DOF (internal DOF index = DOF_TFA1), m/s
          2    0.00000000E+00                                           F               2         First time derivative of ED 1st tower side-to-side bending mode DOF (internal DOF index = DOF_TSS1), m/s
          3    0.00000000E+00                                           F               2         First time derivative of ED 2nd tower fore-aft bending mode DOF (internal DOF index = DOF_TFA2), m/s
          4    0.00000000E+00                                           F               2         First time derivative of ED 2nd tower side-to-side bending mode DOF (internal DOF index = DOF_TSS2), m/s
          5    0.00000000E+00                                           F               2         First time derivative of ED Drivetrain rotational-flexibility DOF (internal DOF index = DOF_DrTr), rad/s
          6    0.00000000E+00                                           T               2         First time derivative of ED 1st flapwise bending-mode DOF of blade 1 (internal DOF index = DOF_BF(1,1)), m/s
          7    0.00000000E+00                                           T               2         First time derivative of ED 1st flapwise bending-mode DOF of blade 2 (internal DOF index = DOF_BF(2,1)), m/s
          8    0.00000000E+00                                           T               2         First time derivative of ED 1st flapwise bending-mode DOF of blade 3 (internal DOF index = DOF_BF(3,1)), m/s
          9    0.00000000E+00                                           T               2         First time derivative of ED 1st edgewise bending-mode DOF of blade 1 (internal DOF index = DOF_BE(1,1)), m/s
         10    0.00000000E+00                                           T               2         First time derivative of ED 1st edgewise bending-mode DOF of blade 2 (internal DOF index = DOF_BE(2,1)), m/s
         11    0.00000000E+00                                           T               2         First time derivative of ED 1st edgewise bending-mode DOF of blade 3 (internal DOF index = DOF_BE(3,1)), m/s
         12    0.00000000E+00                                           T               2         First time derivative of ED 2nd flapwise bending-mode DOF of blade 1 (internal DOF index = DOF_BF(1,2)), m/s
         13    0.00000000E+00                                           T               2         First time derivative of ED 2nd flapwise bending-mode DOF of blade 2 (internal DOF index = DOF_BF(2,2)), m/s
         14    0.00000000E+00                                           T               2         First time derivative of ED 2nd flapwise bending-mode DOF of blade 3 (internal DOF index = DOF_BF(3,2)), m/s
         15    0.00000000E+00                                           F               2         First time derivative of ED First time derivative of 1st tower fore-aft bending mode DOF (internal DOF index = DOF_TFA1), m/s/s
         16    0.00000000E+00                                           F               2         First time derivative of ED First time derivative of 1st tower side-to-side bending mode DOF (internal DOF index = DOF_TSS1), m/s/s
         17    0.00000000E+00                                           F               2         First time derivative of ED First time derivative of 2nd tower fore-aft bending mode DOF (internal DOF index = DOF_TFA2), m/s/s
         18    0.00000000E+00                                           F               2         First time derivative of ED First time derivative of 2nd tower side-to-side bending mode DOF (internal DOF index = DOF_TSS2), m/s/s
         19    0.00000000E+00                                           F               2         First time derivative of ED First time derivative of Drivetrain rotational-flexibility DOF (internal DOF index = DOF_DrTr), rad/s/s
         20    0.00000000E+00                                           T               2         First time derivative of ED First time derivative of 1st flapwise bending-mode DOF of blade 1 (internal DOF index = DOF_BF(1,1)), m/s/s
         21    0.00000000E+00                                           T               2         First time derivative of ED First time derivative of 1st flapwise bending-mode DOF of blade 2 (internal DOF index = DOF_BF(2,1)), m/s/s
         22    0.00000000E+00                                           T               2         First time derivative of ED First time derivative of 1st flapwise bending-mode DOF of blade 3 (internal DOF index = DOF_BF(3,1)), m/s/s
         23    0.00000000E+00                                           T               2         First time derivative of ED First time derivative of 1st edgewise bending-mode DOF of blade 1 (internal DOF index = DOF_BE(1,1)), m/s/s
         24    0.00000000E+00                                           T               2         First time derivative of ED First time derivative of 1st edgewise bending-mode DOF of blade 2 (internal DOF index = DOF_BE(2,1)), m/s/s
         25    0.00000000E+00                                           T               2         First time derivative of ED First time derivative of 1st edgewise bending-mode DOF of blade 3 (internal DOF index = DOF_BE(3,1)), m/s/s
         26    0.00000000E+00                                           T               2         First time derivative of ED First time derivative of 2nd flapwise bending-mode DOF of blade 1 (internal DOF index = DOF_BF(1,2)), m/s/s
         27    0.00000000E+00                                           T               2         First time derivative of ED First time derivative of 2nd flapwise bending-mode DOF of blade 2 (internal DOF index = DOF_BF(2,2)), m/s/s
         28    0.00000000E+00                                           T               2         First time derivative of ED First time derivative of 2nd flapwise bending-mode DOF of blade 3 (internal DOF index = DOF_BF(3,2)), m/s/s

Order of inputs:
     Column   Operating Point                                    Rotating Frame? Derivative Order Description
   ---------- ---------------                                    --------------- ---------------- -----------
          1    0.00000000E+00                                           T               0         ED Blade 1 pitch command, rad
          2    0.00000000E+00                                           T               0         ED Blade 2 pitch command, rad
          3    0.00000000E+00                                           T               0         ED Blade 3 pitch command, rad
          4    0.00000000E+00                                           F               0         ED Yaw moment, Nm
          5    0.00000000E+00                                           F               0         ED Generator torque, Nm
          6    0.00000000E+00                                           F               0         ED Extended input: collective blade-pitch command, rad

Order of outputs:
        Row   Operating Point                                    Rotating Frame? Derivative Order Description
   ---------- ---------------                                    --------------- ---------------- -----------
          1    0.00000000E+00                                           T               0         ED BldPitch1, (deg)
          2    0.00000000E+00                                           T               0         ED BldPitch2, (deg)
          3    0.00000000E+00                                           T               0         ED BldPitch3, (deg)
          4    0.00000000E+00                                           F               0         ED Azimuth, (deg)
          5    0.00000000E+00                                           F               0         ED RotSpeed, (rpm)
          6    0.00000000E+00                                           F               0         ED GenSpeed, (rpm)
          7    0.00000000E+00                                           F               0         ED NacYaw, (deg)
          8    0.00000000E+00                                           T               0         ED TipDxb1, (m)
          9    0.00000000E+00                                           T               0         ED TipDyb1, (m)
         10    0.00000000E+00                                           T               0         ED TipDxb2, (m)
         11    0.00000000E+00                                           T               0         ED TipDyb2, (m)
         12    0.00000000E+00                                           T               0         ED TipDxb3, (m)
         13    0.00000000E+00                                           T               0         ED TipDyb3, (m)
         14    0.00000000E+00                                           T               0         ED OoPDefl1, (m)
         15    0.00000000E+00                                           T               0         ED IPDefl1, (m)
         16    0.00000000E+00                                           T               0         ED TwstDefl1, (deg)
         17    0.00000000E+00                                           T               0         ED OoPDefl2, (m)
         18    0.00000000E+00                                           T               0         ED IPDefl2, (m)
         19    0.00000000E+00                                           T               0         ED TwstDefl2, (deg)
         20    0.00000000E+00                                           T               0         ED OoPDefl3, (m)
         21    0.00000000E+00                                           T               0         ED IPDefl3, (m)
         22    0.00000000E+00                                           T               0         ED TwstDefl3, (deg)
         23    0.00000000E+00                                           T               0         ED RootFxc1, (kN)
         24    0.00000000E+00                                           T               0         ED RootFxc1, (kN)
         25    0.00000000E+00                                           T               0         ED RootFyc1, (kN)
         26    0.00000000E+00                                           T               0         ED RootFzc1, (kN)
         27    0.00000000E+00                                           T               0         ED RootMxc1, (kN-m)
         28    0.00000000E+00                                           T               0         ED RootMyc1, (kN-m)
         29    0.00000000E+00                                           T               0         ED RootMzc1, (kN-m)
         30    0.00000000E+00                                           T               0         ED RootFxc2, (kN)
         31    0.00000000E+00                                           T               0         ED RootFyc2, (kN)
         32    0.00000000E+00                                           T               0         ED RootFzc2, (kN)
         33    0.00000000E+00                                           T               0         ED RootMxc2, (kN-m)
         34    0.00000000E+00                                           T               0         ED RootMyc2, (kN-m)
         35    0.00000000E+00                                           T               0         ED RootMzc2, (kN-m)
         36    0.00000000E+00                                           T               0         ED RootFxc3, (kN)
         37    0.00000000E+00                                           T               0         ED RootFyc3, (kN)
         38    0.00000000E+00                                           T               0         ED RootFzc3, (kN)
         39    0.00000000E+00                                           T               0         ED RootMxc3, (kN-m)
         40    0.00000000E+00                                           T               0         ED RootMyc3, (kN-m)
         41    0.00000000E+00                                           T               0         ED RootMzc3, (kN-m)
         42    0.00000000E+00                                           T               0         ED RootFxb1, (kN)
         43    0.00000000E+00                                           T               0         ED RootFyb1, (kN)
         44    0.00000000E+00                                           T               0         ED RootFzb1, (kN)
         45    0.00000000E+00                                           T               0         ED RootMxb1, (kN-m)
         46    0.00000000E+00                                           T               0         ED RootMyb1, (kN-m)
         47    0.00000000E+00                                           T               0         ED RootMzb1, (kN-m)
         48    0.00000000E+00                                           T               0         ED RootFxb2, (kN)
         49    0.00000000E+00                                           T               0         ED RootFyb2, (kN)
         50    0.00000000E+00                                           T               0         ED RootFzb2, (kN)
         51    0.00000000E+00                                           T               0         ED RootMxb2, (kN-m)
         52    0.00000000E+00                                           T               0         ED RootMyb2, (kN-m)
         53    0.00000000E+00                                           T               0         ED RootMzb2, (kN-m)
         54    0.00000000E+00                                           T               0         ED RootFxb3, (kN)
         55    0.00000000E+00                                           T               0         ED RootFyb3, (kN)
         56    0.00000000E+00                                           T               0         ED RootFzb3, (kN)
         57    0.00000000E+00                                           T               0         ED RootMxb3, (kN-m)
         58    0.00000000E+00                                           T               0         ED RootMyb3, (kN-m)
         59    0.00000000E+00                                           T               0         ED RootMzb3, (kN-m)
         60    0.00000000E+00                                           F               0         ED LSSTipMya, (kN-m)
         61    0.00000000E+00                                           F               0         ED LSSTipMza, (kN-m)
         62    0.00000000E+00                                           F               0         ED LSSTipMys, (kN-m)
         63    0.00000000E+00                                           F               0         ED LSSTipMzs, (kN-m)
         64    0.00000000E+00                                           F               0         ED RotThrust, (kN)
         65    0.00000000E+00                                           F               0         ED LSSGagFya, (kN)
         66    0.00000000E+00                                           F               0         ED LSSGagFza, (kN)
         67    0.00000000E+00                                           F               0         ED RotTorq, (kN-m)
         68    0.00000000E+00                                           F               0         ED LSSGagMya, (kN-m)
         69    0.00000000E+00                                           F               0         ED LSSGagMza, (kN-m)
         70    0.00000000E+00                                           F               0         ED RotPwr, (kW)
         71    0.00000000E+00                                           F               0         ED HSShftTq, (kN-m)
         72    0.00000000E+00                                           F               0         ED NcIMUTAxs, (m/s^2)
         73    0.00000000E+00                                           F               0         ED NcIMUTAys, (m/s^2)
         74    0.00000000E+00                                           F               0         ED NcIMUTAzs, (m/s^2)
         75    0.00000000E+00                                           F               0         ED TTDspFA, (m)
         76    0.00000000E+00                                           F               0         ED TTDspSS, (m)
         77    0.00000000E+00                                           F               0         ED TTDspTwst, (deg)
         78    0.00000000E+00                                           F               0         ED YawBrFxp, (kN)
         79    0.00000000E+00                                           F               0         ED YawBrFyp, (kN)
         80    0.00000000E+00                                           F               0         ED YawBrFzp, (kN)
         81    0.00000000E+00                                           F               0         ED YawBrMxp, (kN-m)
         82    0.00000000E+00                                           F               0         ED YawBrMyp, (kN-m)
         83    0.00000000E+00                                           F               0         ED YawBrMzp, (kN-m)
         84    0.00000000E+00                                           F               0         ED YawBrTAxp, (m/s^2)
         85    0.00000000E+00                                           F               0         ED YawBrTAyp, (m/s^2)
         86    0.00000000E+00                                           F               0         ED TwrBsFxt, (kN)
         87    0.00000000E+00                                           F               0         ED TwrBsFyt, (kN)
         88    0.00000000E+00                                           F               0         ED TwrBsFzt, (kN)
         89    0.00000000E+00                                           F               0         ED TwrBsMxt, (kN-m)
         90    0.00000000E+00                                           F               0         ED TwrBsMyt, (kN-m)
         91    0.00000000E+00                                           F               0         ED TwrBsMzt, (kN-m)
         92    0.00000000E+00                                           F               0         AD RtSpeed, (rpm)
         93    0.00000000E+00                                           F               0         AD RtTSR, (-)
         94    0.00000000E+00                                           F               0         AD RtVAvgxh, (m/s)
         95    0.00000000E+00                                           F               0         AD RtVAvgyh, (m/s)
         96    0.00000000E+00                                           F               0         AD RtVAvgzh, (m/s)
         97    0.00000000E+00                                           F               0         AD RtSkew, (deg)
         98    0.00000000E+00                                           F               0         AD RtAeroFxh, (N)
         99    0.00000000E+00                                           F               0         AD RtAeroFyh, (N)
        100    0.00000000E+00                                           F               0         AD RtAeroFzh, (N)
        101    0.00000000E+00                                           F               0         AD RtAeroMxh, (N-m)
        102    0.00000000E+00                                           F               0         AD RtAeroMyh, (N-m)
        103    0.00000000E+00                                           F               0         AD RtAeroMzh, (N-m)
        104    0.00000000E+00                                           F               0         AD RtAeroPwr, (W)
        105    5.03660728E+03                                           F               0         AD RtArea, (m^2)
        106    0.00000000E+00                                           F               0         AD RtAeroCp, (-)
        107    0.00000000E+00                                           F               0         AD RtAeroCq, (-)
        108    0.00000000E+00                                           F               0         AD RtAeroCt, (-)


Linearized state matrices:

A: 28 x 28
    0.00000000E+00  0.00000000E+00  0.00000000E+00  0.00000000E+00  0.00000000E+00  0.00000000E+00  0.00000000E+00  0.00000000E+00  0.00000000E+00  0.00000000E+00  0.00000000E+00  0.00000000E+00  0.00000000E+00  0.00000000E+00  1.00000000E+00  0.00000000E+00  0.00000000E+00  0.00000000E+00  0.00000000E+00  0.00000000E+00  0.00000000E+00  0.00000000E+00  0.00000000E+00  0.00000000E+00  0.00000000E+00  0.00000000E+00  0.00000000E+00  0.00000000E+00
    0.00000000E+00  0.00000000E+00  0.00000000E+00  0.00000000E+00  0.00000000E+00  0.00000000E+00  0.00000000E+00  0.00000000E+00  0.00000000E+00  0.00000000E+00  0.00000000E+00  0.00000000E+00  0.00000000E+00  0.00000000E+00  0.00000000E+00  1.00000000E+00  0.00000000E+00  0.00000000E+00  0.00000000E+00  0.00000000E+00  0.00000000E+00  0.00000000E+00  0.00000000E+00  0.00000000E+00  0.00000000E+00  0.00000000E+00  0.00000000E+00  0.00000000E+00
    0.00000000E+00  0.00000000E+00  0.00000000E+00  0.00000000E+00  0.00000000E+00  0.00000000E+00  0.00000000E+00  0.00000000E+00  0.00000000E+00  0.00000000E+00  0.00000000E+00  0.00000000E+00  0.00000000E+00  0.00000000E+00  0.00000000E+00  0.00000000E+00  1.00000000E+00  0.00000000E+00  0.00000000E+00  0.00000000E+00  0.00000000E+00  0.00000000E+00  0.00000000E+00  0.00000000E+00  0.00000000E+00  0.00000000E+00  0.00000000E+00  0.00000000E+00
    0.00000000E+00  0.00000000E+00  0.00000000E+00  0.00000000E+00  0.00000000E+00  0.00000000E+00  0.00000000E+00  0.00000000E+00  0.00000000E+00  0.00000000E+00  0.00000000E+00  0.00000000E+00  0.00000000E+00  0.00000000E+00  0.00000000E+00  0.00000000E+00  0.00000000E+00  1.00000000E+00  0.00000000E+00  0.00000000E+00  0.00000000E+00  0.00000000E+00  0.00000000E+00  0.00000000E+00  0.00000000E+00  0.00000000E+00  0.00000000E+00  0.00000000E+00
    0.00000000E+00  0.00000000E+00  0.00000000E+00  0.00000000E+00  0.00000000E+00  0.00000000E+00  0.00000000E+00  0.00000000E+00  0.00000000E+00  0.00000000E+00  0.00000000E+00  0.00000000E+00  0.00000000E+00  0.00000000E+00  0.00000000E+00  0.00000000E+00  0.00000000E+00  0.00000000E+00  1.00000000E+00  0.00000000E+00  0.00000000E+00  0.00000000E+00  0.00000000E+00  0.00000000E+00  0.00000000E+00  0.00000000E+00  0.00000000E+00  0.00000000E+00
    0.00000000E+00  0.00000000E+00  0.00000000E+00  0.00000000E+00  0.00000000E+00  0.00000000E+00  0.00000000E+00  0.00000000E+00  0.00000000E+00  0.00000000E+00  0.00000000E+00  0.00000000E+00  0.00000000E+00  0.00000000E+00  0.00000000E+00  0.00000000E+00  0.00000000E+00  0.00000000E+00  0.00000000E+00  1.00000000E+00  0.00000000E+00  0.00000000E+00  0.00000000E+00  0.00000000E+00  0.00000000E+00  0.00000000E+00  0.00000000E+00  0.00000000E+00
    0.00000000E+00  0.00000000E+00  0.00000000E+00  0.00000000E+00  0.00000000E+00  0.00000000E+00  0.00000000E+00  0.00000000E+00  0.00000000E+00  0.00000000E+00  0.00000000E+00  0.00000000E+00  0.00000000E+00  0.00000000E+00  0.00000000E+00  0.00000000E+00  0.00000000E+00  0.00000000E+00  0.00000000E+00  0.00000000E+00  1.00000000E+00  0.00000000E+00  0.00000000E+00  0.00000000E+00  0.00000000E+00  0.00000000E+00  0.00000000E+00  0.00000000E+00