
Linearized model: Predictions were generated on 01-Jun-2020 at 20:01:54 using OpenFAST, compiled as a 64-bit application using single precision at commit v2.3.0
 linked with  NWTC Subroutine Library; ElastoDyn

Description from the FAST input file: OpenFAST2     model         for NM80 used in IEA task#29

Simulation information:
   Simulation time:                    10.0000 s
   Rotor Speed:                         0.0000 rad/s
   Azimuth:                             0.0000 rad
   Number of continuous states:        28
   Number of discrete states:           0
   Number of constraint states:         0
   Number of inputs:                    6
   Number of outputs:                  91
   Jacobians included in this file?    No

Order of continuous states:
   Row/Column Operating Point                                    Rotating Frame? Description
   ---------- ---------------                                    --------------- -----------
          1    0.00000000E+00                                           F        ED 1st tower fore-aft bending mode DOF (internal DOF index = DOF_TFA1), m
          2    0.00000000E+00                                           F        ED 1st tower side-to-side bending mode DOF (internal DOF index = DOF_TSS1), m
          3    0.00000000E+00                                           F        ED 2nd tower fore-aft bending mode DOF (internal DOF index = DOF_TFA2), m
          4    0.00000000E+00                                           F        ED 2nd tower side-to-side bending mode DOF (internal DOF index = DOF_TSS2), m
          5    0.00000000E+00                                           F        ED Drivetrain rotational-flexibility DOF (internal DOF index = DOF_DrTr), rad
          6    0.00000000E+00                                           T        ED 1st flapwise bending-mode DOF of blade 1 (internal DOF index = DOF_BF(1,1)), m
          7    0.00000000E+00                                           T        ED 1st flapwise bending-mode DOF of blade 2 (internal DOF index = DOF_BF(2,1)), m
          8    0.00000000E+00                                           T        ED 1st flapwise bending-mode DOF of blade 3 (internal DOF index = DOF_BF(3,1)), m
          9    0.00000000E+00                                           T        ED 1st edgewise bending-mode DOF of blade 1 (internal DOF index = DOF_BE(1,1)), m
         10    0.00000000E+00                                           T        ED 1st edgewise bending-mode DOF of blade 2 (internal DOF index = DOF_BE(2,1)), m
         11    0.00000000E+00                                           T        ED 1st edgewise bending-mode DOF of blade 3 (internal DOF index = DOF_BE(3,1)), m
         12    0.00000000E+00                                           T        ED 2nd flapwise bending-mode DOF of blade 1 (internal DOF index = DOF_BF(1,2)), m
         13    0.00000000E+00                                           T        ED 2nd flapwise bending-mode DOF of blade 2 (internal DOF index = DOF_BF(2,2)), m
         14    0.00000000E+00                                           T        ED 2nd flapwise bending-mode DOF of blade 3 (internal DOF index = DOF_BF(3,2)), m
         15    0.00000000E+00                                           F        ED First time derivative of 1st tower fore-aft bending mode DOF (internal DOF index = DOF_TFA1), m/s
         16    0.00000000E+00                                           F        ED First time derivative of 1st tower side-to-side bending mode DOF (internal DOF index = DOF_TSS1), m/s
         17    0.00000000E+00                                           F        ED First time derivative of 2nd tower fore-aft bending mode DOF (internal DOF index = DOF_TFA2), m/s
         18    0.00000000E+00                                           F        ED First time derivative of 2nd tower side-to-side bending mode DOF (internal DOF index = DOF_TSS2), m/s
         19    0.00000000E+00                                           F        ED First time derivative of Drivetrain rotational-flexibility DOF (internal DOF index = DOF_DrTr), rad/s
         20    0.00000000E+00                                           T        ED First time derivative of 1st flapwise bending-mode DOF of blade 1 (internal DOF index = DOF_BF(1,1)), m/s
         21    0.00000000E+00                                           T        ED First time derivative of 1st flapwise bending-mode DOF of blade 2 (internal DOF index = DOF_BF(2,1)), m/s
         22    0.00000000E+00                                           T        ED First time derivative of 1st flapwise bending-mode DOF of blade 3 (internal DOF index = DOF_BF(3,1)), m/s
         23    0.00000000E+00                                           T        ED First time derivative of 1st edgewise bending-mode DOF of blade 1 (internal DOF index = DOF_BE(1,1)), m/s
         24    0.00000000E+00                                           T        ED First time derivative of 1st edgewise bending-mode DOF of blade 2 (internal DOF index = DOF_BE(2,1)), m/s
         25    0.00000000E+00                                           T        ED First time derivative of 1st edgewise bending-mode DOF of blade 3 (internal DOF index = DOF_BE(3,1)), m/s
         26    0.00000000E+00                                           T        ED First time derivative of 2nd flapwise bending-mode DOF of blade 1 (internal DOF index = DOF_BF(1,2)), m/s
         27    0.00000000E+00                                           T        ED First time derivative of 2nd flapwise bending-mode DOF of blade 2 (internal DOF index = DOF_BF(2,2)), m/s
         28    0.00000000E+00                                           T        ED First time derivative of 2nd flapwise bending-mode DOF of blade 3 (internal DOF index = DOF_BF(3,2)), m/s

Order of continuous state derivatives:
   Row/Column Operating Point                                    Rotating Frame? Description
   ---------- ---------------                                    --------------- -----------
          1    0.00000000E+00                                           F        First time derivative of ED 1st tower fore-aft bending mode DOF (internal DOF index = DOF_TFA1), m/s
          2    0.00000000E+00                                           F        First time derivative of ED 1st tower side-to-side bending mode DOF (internal DOF index = DOF_TSS1), m/s
          3    0.00000000E+00                                           F        First time derivative of ED 2nd tower fore-aft bending mode DOF (internal DOF index = DOF_TFA2), m/s
          4    0.00000000E+00                                           F        First time derivative of ED 2nd tower side-to-side bending mode DOF (internal DOF index = DOF_TSS2), m/s
          5    0.00000000E+00                                           F        First time derivative of ED Drivetrain rotational-flexibility DOF (internal DOF index = DOF_DrTr), rad/s
          6    0.00000000E+00                                           T        First time derivative of ED 1st flapwise bending-mode DOF of blade 1 (internal DOF index = DOF_BF(1,1)), m/s
          7    0.00000000E+00                                           T        First time derivative of ED 1st flapwise bending-mode DOF of blade 2 (internal DOF index = DOF_BF(2,1)), m/s
          8    0.00000000E+00                                           T        First time derivative of ED 1st flapwise bending-mode DOF of blade 3 (internal DOF index = DOF_BF(3,1)), m/s
          9    0.00000000E+00                                           T        First time derivative of ED 1st edgewise bending-mode DOF of blade 1 (internal DOF index = DOF_BE(1,1)), m/s
         10    0.00000000E+00                                           T        First time derivative of ED 1st edgewise bending-mode DOF of blade 2 (internal DOF index = DOF_BE(2,1)), m/s
         11    0.00000000E+00                                           T        First time derivative of ED 1st edgewise bending-mode DOF of blade 3 (internal DOF index = DOF_BE(3,1)), m/s
         12    0.00000000E+00                                           T        First time derivative of ED 2nd flapwise bending-mode DOF of blade 1 (internal DOF index = DOF_BF(1,2)), m/s
         13    0.00000000E+00                                           T        First time derivative of ED 2nd flapwise bending-mode DOF of blade 2 (internal DOF index = DOF_BF(2,2)), m/s
         14    0.00000000E+00                                           T        First time derivative of ED 2nd flapwise bending-mode DOF of blade 3 (internal DOF index = DOF_BF(3,2)), m/s
         15    0.00000000E+00                                           F        First time derivative of ED First time derivative of 1st tower fore-aft bending mode DOF (internal DOF index = DOF_TFA1), m/s/s
         16    0.00000000E+00                                           F        First time derivative of ED First time derivative of 1st tower side-to-side bending mode DOF (internal DOF index = DOF_TSS1), m/s/s
         17    0.00000000E+00                                           F        First time derivative of ED First time derivative of 2nd tower fore-aft bending mode DOF (internal DOF index = DOF_TFA2), m/s/s
         18    0.00000000E+00                                           F        First time derivative of ED First time derivative of 2nd tower side-to-side bending mode DOF (internal DOF index = DOF_TSS2), m/s/s
         19    0.00000000E+00                                           F        First time derivative of ED First time derivative of Drivetrain rotational-flexibility DOF (internal DOF index = DOF_DrTr), rad/s/s
         20    0.00000000E+00                                           T        First time derivative of ED First time derivative of 1st flapwise bending-mode DOF of blade 1 (internal DOF index = DOF_BF(1,1)), m/s/s
         21    0.00000000E+00                                           T        First time derivative of ED First time derivative of 1st flapwise bending-mode DOF of blade 2 (internal DOF index = DOF_BF(2,1)), m/s/s
         22    0.00000000E+00                                           T        First time derivative of ED First time derivative of 1st flapwise bending-mode DOF of blade 3 (internal DOF index = DOF_BF(3,1)), m/s/s
         23    0.00000000E+00                                           T        First time derivative of ED First time derivative of 1st edgewise bending-mode DOF of blade 1 (internal DOF index = DOF_BE(1,1)), m/s/s
         24    0.00000000E+00                                           T        First time derivative of ED First time derivative of 1st edgewise bending-mode DOF of blade 2 (internal DOF index = DOF_BE(2,1)), m/s/s
         25    0.00000000E+00                                           T        First time derivative of ED First time derivative of 1st edgewise bending-mode DOF of blade 3 (internal DOF index = DOF_BE(3,1)), m/s/s
         26    0.00000000E+00                                           T        First time derivative of ED First time derivative of 2nd flapwise bending-mode DOF of blade 1 (internal DOF index = DOF_BF(1,2)), m/s/s
         27    0.00000000E+00                                           T        First time derivative of ED First time derivative of 2nd flapwise bending-mode DOF of blade 2 (internal DOF index = DOF_BF(2,2)), m/s/s
         28    0.00000000E+00                                           T        First time derivative of ED First time derivative of 2nd flapwise bending-mode DOF of blade 3 (internal DOF index = DOF_BF(3,2)), m/s/s

Order of inputs:
     Column   Operating Point                                    Rotating Frame? Description
   ---------- ---------------                                    --------------- -----------
          1    0.00000000E+00                                           T        ED Blade 1 pitch command, rad
          2    0.00000000E+00                                           T        ED Blade 2 pitch command, rad
          3    0.00000000E+00                                           T        ED Blade 3 pitch command, rad
          4    0.00000000E+00                                           F        ED Yaw moment, Nm
          5    0.00000000E+00                                           F        ED Generator torque, Nm
          6    0.00000000E+00                                           F        ED Extended input: collective blade-pitch command, rad

Order of outputs:
        Row   Operating Point                                    Rotating Frame? Description
   ---------- ---------------                                    --------------- -----------
          1    0.00000000E+00                                           T        ED BldPitch1, (deg)
          2    0.00000000E+00                                           T        ED BldPitch2, (deg)
          3    0.00000000E+00                                           T        ED BldPitch3, (deg)
          4    0.00000000E+00                                           F        ED Azimuth, (deg)
          5    0.00000000E+00                                           F        ED RotSpeed, (rpm)
          6    0.00000000E+00                                           F        ED GenSpeed, (rpm)
          7    0.00000000E+00                                           F        ED NacYaw, (deg)
          8    0.00000000E+00                                           T        ED TipDxb1, (m)
          9    0.00000000E+00                                           T        ED TipDyb1, (m)
         10    0.00000000E+00                                           T        ED TipDxb2, (m)
         11    0.00000000E+00                                           T        ED TipDyb2, (m)
         12    0.00000000E+00                                           T        ED TipDxb3, (m)
         13    0.00000000E+00                                           T        ED TipDyb3, (m)
         14    0.00000000E+00                                           T        ED OoPDefl1, (m)
         15    0.00000000E+00                                           T        ED IPDefl1, (m)
         16    0.00000000E+00                                           T        ED TwstDefl1, (deg)
         17    0.00000000E+00                                           T        ED OoPDefl2, (m)
         18    0.00000000E+00                                           T        ED IPDefl2, (m)
         19    0.00000000E+00                                           T        ED TwstDefl2, (deg)
         20    0.00000000E+00                                           T        ED OoPDefl3, (m)
         21    0.00000000E+00                                           T        ED IPDefl3, (m)
         22    0.00000000E+00                                           T        ED TwstDefl3, (deg)
         23    0.00000000E+00                                           T        ED RootFxc1, (kN)
         24    0.00000000E+00                                           T        ED RootFxc1, (kN)
         25    0.00000000E+00                                           T        ED RootFyc1, (kN)
         26    0.00000000E+00                                           T        ED RootFzc1, (kN)
         27    0.00000000E+00                                           T        ED RootMxc1, (kN-m)
         28    0.00000000E+00                                           T        ED RootMyc1, (kN-m)
         29    0.00000000E+00                                           T        ED RootMzc1, (kN-m)
         30    0.00000000E+00                                           T        ED RootFxc2, (kN)
         31    0.00000000E+00                                           T        ED RootFyc2, (kN)
         32    0.00000000E+00                                           T        ED RootFzc2, (kN)
         33    0.00000000E+00                                           T        ED RootMxc2, (kN-m)
         34    0.00000000E+00                                           T        ED RootMyc2, (kN-m)
         35    0.00000000E+00                                           T        ED RootMzc2, (kN-m)
         36    0.00000000E+00                                           T        ED RootFxc3, (kN)
         37    0.00000000E+00                                           T        ED RootFyc3, (kN)
         38    0.00000000E+00                                           T        ED RootFzc3, (kN)
         39    0.00000000E+00                                           T        ED RootMxc3, (kN-m)
         40    0.00000000E+00                                           T        ED RootMyc3, (kN-m)
         41    0.00000000E+00                                           T        ED RootMzc3, (kN-m)
         42    0.00000000E+00                                           T        ED RootFxb1, (kN)
         43    0.00000000E+00                                           T        ED RootFyb1, (kN)
         44    0.00000000E+00                                           T        ED RootFzb1, (kN)
         45    0.00000000E+00                                           T        ED RootMxb1, (kN-m)
         46    0.00000000E+00                                           T        ED RootMyb1, (kN-m)
         47    0.00000000E+00                                           T        ED RootMzb1, (kN-m)
         48    0.00000000E+00                                           T        ED RootFxb2, (kN)
         49    0.00000000E+00                                           T        ED RootFyb2, (kN)
         50    0.00000000E+00                                           T        ED RootFzb2, (kN)
         51    0.00000000E+00                                           T        ED RootMxb2, (kN-m)
         52    0.00000000E+00                                           T        ED RootMyb2, (kN-m)
         53    0.00000000E+00                                           T        ED RootMzb2, (kN-m)
         54    0.00000000E+00                                           T        ED RootFxb3, (kN)
         55    0.00000000E+00                                           T        ED RootFyb3, (kN)
         56    0.00000000E+00                                           T        ED RootFzb3, (kN)
         57    0.00000000E+00                                           T        ED RootMxb3, (kN-m)
         58    0.00000000E+00                                           T        ED RootMyb3, (kN-m)
         59    0.00000000E+00                                           T        ED RootMzb3, (kN-m)
         60    0.00000000E+00                                           F        ED LSSTipMya, (kN-m)
         61    0.00000000E+00                                           F        ED LSSTipMza, (kN-m)
         62    0.00000000E+00                                           F        ED LSSTipMys, (kN-m)
         63    0.00000000E+00                                           F        ED LSSTipMzs, (kN-m)
         64    0.00000000E+00                                           F        ED RotThrust, (kN)
         65    0.00000000E+00                                           F        ED LSSGagFya, (kN)
         66    0.00000000E+00                                           F        ED LSSGagFza, (kN)
         67    0.00000000E+00                                           F        ED RotTorq, (kN-m)
         68    0.00000000E+00                                           F        ED LSSGagMya, (kN-m)
         69    0.00000000E+00                                           F        ED LSSGagMza, (kN-m)
         70    0.00000000E+00                                           F        ED RotPwr, (kW)
         71    0.00000000E+00                                           F        ED HSShftTq, (kN-m)
         72    0.00000000E+00                                           F        ED NcIMUTAxs, (m/s^2)
         73    0.00000000E+00                                           F        ED NcIMUTAys, (m/s^2)
         74    0.00000000E+00                                           F        ED NcIMUTAzs, (m/s^2)
         75    0.00000000E+00                                           F        ED TTDspFA, (m)
         76    0.00000000E+00                                           F        ED TTDspSS, (m)
         77    0.00000000E+00                                           F        ED TTDspTwst, (deg)
         78    0.00000000E+00                                           F        ED YawBrFxp, (kN)
         79    0.00000000E+00                                           F        ED YawBrFyp, (kN)
         80    0.00000000E+00                                           F        ED YawBrFzp, (kN)
         81    0.00000000E+00                                           F        ED YawBrMxp, (kN-m)
         82    0.00000000E+00                                           F        ED YawBrMyp, (kN-m)
         83    0.00000000E+00                                           F        ED YawBrMzp, (kN-m)
         84    0.00000000E+00                                           F        ED YawBrTAxp, (m/s^2)
         85    0.00000000E+00                                           F        ED YawBrTAyp, (m/s^2)
         86    0.00000000E+00                                           F        ED TwrBsFxt, (kN)
         87    0.00000000E+00                                           F        ED TwrBsFyt, (kN)
         88    0.00000000E+00                                           F        ED TwrBsFzt, (kN)
         89    0.00000000E+00                                           F        ED TwrBsMxt, (kN-m)
         90    0.00000000E+00                                           F        ED TwrBsMyt, (kN-m)
         91    0.00000000E+00                                           F        ED TwrBsMzt, (kN-m)


Linearized state matrices:

A: 28 x 28
    0.00000000E+00  0.00000000E+00  0.00000000E+00  0.00000000E+00  0.00000000E+00  0.00000000E+00  0.00000000E+00  0.00000000E+00  0.00000000E+00  0.00000000E+00  0.00000000E+00  0.00000000E+00  0.00000000E+00  0.00000000E+00  1.00000000E+00  0.00000000E+00  0.00000000E+00  0.00000000E+00  0.00000000E+00  0.00000000E+00  0.00000000E+00  0.00000000E+00  0.00000000E+00  0.00000000E+00  0.00000000E+00  0.00000000E+00  0.00000000E+00  0.00000000E+00
    0.00000000E+00  0.00000000E+00  0.00000000E+00  0.00000000E+00  0.00000000E+00  0.00000000E+00  0.00000000E+00  0.00000000E+00  0.00000000E+00  0.00000000E+00  0.00000000E+00  0.00000000E+00  0.00000000E+00  0.00000000E+00  0.00000000E+00  1.00000000E+00  0.00000000E+00  0.00000000E+00  0.00000000E+00  0.00000000E+00  0.00000000E+00  0.00000000E+00  0.00000000E+00  0.00000000E+00  0.00000000E+00  0.00000000E+00  0.00000000E+00  0.00000000E+00
    0.00000000E+00  0.00000000E+00  0.00000000E+00  0.00000000E+00  0.00000000E+00  0.00000000E+00  0.00000000E+00  0.00000000E+00  0.00000000E+00  0.00000000E+00  0.00000000E+00  0.00000000E+00  0.00000000E+00  0.00000000E+00  0.00000000E+00  0.00000000E+00  1.00000000E+00  0.00000000E+00  0.00000000E+00  0.00000000E+00  0.00000000E+00  0.00000000E+00  0.00000000E+00  0.00000000E+00  0.00000000E+00  0.00000000E+00  0.00000000E+00  0.00000000E+00
    0.00000000E+00  0.00000000E+00  0.00000000E+00  0.00000000E+00  0.00000000E+00  0.00000000E+00  0.00000000E+00  0.00000000E+00  0.00000000E+00  0.00000000E+00  0.00000000E+00  0.00000000E+00  0.00000000E+00  0.00000000E+00  0.00000000E+00  0.00000000E+00  0.00000000E+00  1.00000000E+00  0.00000000E+00  0.00000000E+00  0.00000000E+00  0.00000000E+00  0.00000000E+00  0.00000000E+00  0.00000000E+00  0.00000000E+00  0.00000000E+00  0.00000000E+00
    0.00000000E+00  0.00000000E+00  0.00000000E+00  0.00000000E+00  0.00000000E+00  0.00000000E+00  0.00000000E+00  0.00000000E+00  0.00000000E+00  0.00000000E+00  0.00000000E+00  0.00000000E+00  0.00000000E+00  0.00000000E+00  0.00000000E+00  0.00000000E+00  0.00000000E+00  0.00000000E+00  1.00000000E+00  0.00000000E+00  0.00000000E+00  0.00000000E+00  0.00000000E+00  0.00000000E+00  0.00000000E+00  0.00000000E+00  0.00000000E+00  0.00000000E+00
    0.00000000E+00  0.00000000E+00  0.00000000E+00  0.00000000E+00  0.00000000E+00  0.00000000E+00  0.00000000E+00  0.00000000E+00  0.00000000E+00  0.00000000E+00  0.00000000E+00  0.00000000E+00  0.00000000E+00  0.00000000E+00  0.00000000E+00  0.00000000E+00  0.00000000E+00  0.00000000E+00  0.00000000E+00  1.00000000E+00  0.00000000E+00  0.00000000E+00  0.00000000E+00  0.00000000E+00  0.00000000E+00  0.00000000E+00  0.00000000E+00  0.00000000E+00
    0.00000000E+00  0.00000000E+00  0.00000000E+00  0.00000000E+00  0.00000000E+00  0.00000000E+00  0.00000000E+00  0.00000000E+00  0.00000000E+00  0.00000000E+00  0.00000000E+00  0.00000000E+00  0.00000000E+00  0.00000000E+00  0.00000000E+00  0.00000000E+00  0.00000000E+00  0.00000000E+00  0.00000000E+00  0.00000000E+00  1.00000000E+00  0.00000000E+00  0.00000000E+00  0.00000000E+00  0.00000000E+00  0.00000000E+00  0.00000000E+00  0.00000000E+00
    0.00000000E+00  0.00000000E+00  0.00000000E+00  0.00000000E+00  0.00000000E+00  0.00000000E+00  0.00000000E+00  0.00000000E+00  0.00000000E+00  0.00000000E+00  0.00000000E+00  0.00000000E+00  0.00000000E+00  0.00000000E+00  0.00000000E+00  0.00000000E+00  0.00000000E+00  0.00000000E+00  0.00000000E+00  0.00000000E+00  0.00000000E+00  1.00000000E+00  0.00000000E+00  0.00000000E+00  0.00000000E+00  0.00000000E+00  0.00000000E+00  0.00000000E+00
    0.00000000E+00  0.00000000E+00  0.00000000E+00  0.00000000E+00  0.00000000E+00  0.00000000E+00  0.00000000E+00  0.00000000E+00  0.00000000E+00  0.00000000E+00  0.00000000E+00  0.00000000E+00  0.00000000E+00  0.00000000E+00  0.00000000E+00  0.00000000E+00  0.00000000E+00  0.00000000E+00  0.00000000E+00  0.00000000E+00  0.00000000E+00  0.00000000E+00  1.00000000E+00  0.00000000E+00  0.00000000E+00  0.00000000E+00  0.00000000E+00  0.00000000E+00
    0.00000000E+00  0.00000000E+00  0.00000000E+00  0.00000000E+00  0.00000000E+00  0.00000000E+00  0.00000000E+00  0.00000000E+00  0.00000000E+00  0.00000000E+00  0.00000000E+00  0.00000000E+00  0.00000000E+00  0.00000000E+00  0.00000000E+00  0.00000000E+00  0.00000000E+00  0.00000000E+00  0.00000000E+00  0.00000000E+00  0.00000000E+00  0.00000000E+00  0.00000000E+00  1.00000000E+00  0.00000000E+00  0.00000000E+00  0.00000000E+00  0.00000000E+00
    0.00000000E+00  0.00000000E+00  0.00000000E+00  0.00000000E+00  0.00000000E+00  0.00000000E+00  0.00000000E+00  0.00000000E+00  0.00000000E+00  0.00000000E+00  0.00000000E+00  0.00000000E+00  0.00000000E+00  0.00000000E+00  0.00000000E+00  0.00000000E+00  0.00000000E+00  0.00000000E+00  0.00000000E+00  0.00000000E+00  0.00000000E+00  0.00000000E+00  0.00000000E+00  0.00000000E+00  1.00000000E+00  0.00000000E+00  0.00000000E+00  0.00000000E+00
    0.00000000E+00  0.00000000E+00  0.00000000E+00  0.00000000E+00  0.00000000E+00  0.00000000E+00  0.00000000E+00  0.00000000E+00  0.00000000E+00  0.00000000E+00  0.00000000E+00  0.00000000E+00  0.00000000E+00  0.00000000E+00  0.00000000E+00  0.00000000E+00  0.00000000E+00  0.00000000E+00  0.00000000E+00  0.00000000E+00  0.00000000E+00  0.00000000E+00  0.00000000E+00  0.00000000E+00  0.00000000E+00  1.00000000E+00  0.00000000E+00  0.00000000E+00
    0.00000000E+00  0.00000000E+00  0.00000000E+00  0.00000000E+00  0.00000000E+00  0.00000000E+00  0.00000000E+00  0.00000000E+00  0.00000000E+00  0.00000000E+00  0.00000000E+00  0.00000000E+00  0.00000000E+00  0.00000000E+00  0.00000000E+00  0.00000000E+00  0.00000000E+00  0.00000000E+00  0.00000000E+00  0.00000000E+00  0.00000000E+00  0.00000000E+00  0.00000000E+00  0.00000000E+00  0.00000000E+00  0.00000000E+00  1.00000000E+00  0.00000000E+00
    0.00000000E+00  0.00000000E+00  0.00000000E+00  0.00000000E+00  0.00000000E+00  0.00000000E+00  0.00000000E+00  0.00000000E+00  0.00000000E+00  0.00000000E+00  0.00000000E+00  0.00000000E+00  0.00000000E+00  0.00000000E+00  0.00000000E+00  0.00000000E+00  0.00000000E+00  0.00000000E+00  0.00000000E+00  0.00000000E+00  0.00000000E+00  0.00000000E+00  0.00000000E+00  0.00000000E+00  0.00000000E+00  0.00000000E+00  0.00000000E+00  1.00000000E+00
   -9.69411834E+00  4.21606466E-04  3.77578984E+02  3.29410829E-02  7.38084770E-02  2.91895758E-01  1.86294265E-01  1.92761703E-01  3.60759871E-01  4.33969671E-01  8.21297944E-02 -1.16626818E+00 -8.85355888E-01 -8.98575964E-01 -2.36280277E-02  8.84103833E-07  2.96974089E-01  2.22904347E-05  3.32133535E-04  2.48195939E-04  1.58403563E-04  1.63902769E-04  1.68114973E-04  2.02231627E-04  3.82721225E-05 -3.97036461E-04 -3.01404566E-04 -3.05905130E-04
   -7.69177784E-04 -9.28887702E+00  1.49574594E+00  3.82734300E+02  1.50693579E+01  2.69584488E-02 -9.23462002E-03 -1.79420147E-02 -1.50148653E+00  7.54459578E-01  7.46743082E-01 -5.45812801E-02  1.61101557E-02  3.94303685E-02 -1.87476047E-06 -1.94788241E-02  1.17643737E-03  2.58993478E-01  6.78121699E-02  2.29226594E-05 -7.85218474E-06 -1.52559651E-05 -6.99702216E-04  3.51582588E-04  3.47986711E-04 -1.85812891E-05  5.48443901E-06  1.34234106E-05
    7.97405936E-01  1.20873562E-03 -5.79628074E+02  1.37087446E-01 -1.47776352E-02  2.15080637E-01 -8.75903728E-02 -8.11119018E-02  2.20506737E-01  9.60382916E-02 -2.55933512E-01 -6.02874550E-01  2.06097340E-01  1.92849226E-01  1.94356240E-03  2.53472385E-06 -4.55891981E-01  9.27660737E-05 -6.65033395E-05  1.82881320E-04 -7.44774078E-05 -6.89688004E-05  1.02756548E-04  4.47547662E-05 -1.19266241E-04 -2.05238526E-04  7.01623617E-05  6.56522652E-05